TITLE = "MyDevice"
VARIABLES = "x", "y", "NetDoping"
ZONE T="gas1" NODES=22, ELEMENTS=20, DATAPACKING=BLOCK, ZONETYPE=FETRIANGLE
0 0 0.1 0.1 0.2 0.2 0.3 0.3 0.4 0.4 0.5 0.5 0.6 0.6 0.7 0.7 0.8 0.8 0.9 0.9 1 1
-0.001 0 -0.001 0 -0.001 0 -0.001 0 -0.001 0 -0.001 0 -0.001 0 -0.001 0 -0.001 0 -0.001 0 -0.001 0
1e+18 1e+18 1e+18 1e+18 1e+18 1e+18 1e+18 1e+18 1e+18 1e+18 1e+18 1e+18 1e+18 1e+18 1e+18 1e+18 1e+18 1e+18 1e+18 1e+18 1e+18 1e+18
1 3 2
2 3 4
3 5 4
4 5 6
5 7 6
6 7 8
7 9 8
8 9 10
9 11 10
10 11 12
11 13 12
12 13 14
13 15 14
14 15 16
15 17 16
16 17 18
17 19 18
18 19 20
19 21 20
20 21 22
ZONE T="gas2" NODES=22, ELEMENTS=20, DATAPACKING=BLOCK, ZONETYPE=FETRIANGLE
0 0 0.1 0.1 0.2 0.2 0.3 0.3 0.4 0.4 0.5 0.5 0.6 0.6 0.7 0.7 0.8 0.8 0.9 0.9 1 1
1 1.001 1 1.001 1 1.001 1 1.001 1 1.001 1 1.001 1 1.001 1 1.001 1 1.001 1 1.001 1 1.001
-1e+15 -1e+15 -1e+15 -1e+15 -1e+15 -1e+15 -1e+15 -1e+15 -1e+15 -1e+15 -1e+15 -1e+15 -1e+15 -1e+15 -1e+15 -1e+15 -1e+15 -1e+15 -1e+15 -1e+15 -1e+15 -1e+15
1 3 2
2 3 4
3 5 4
4 5 6
5 7 6
6 7 8
7 9 8
8 9 10
9 11 10
10 11 12
11 13 12
12 13 14
13 15 14
14 15 16
15 17 16
16 17 18
17 19 18
18 19 20
19 21 20
20 21 22
ZONE T="r0" NODES=66, ELEMENTS=100, DATAPACKING=BLOCK, ZONETYPE=FETRIANGLE
0 0 0.1 0.1 0 0.1 0 0.1 0 0.1 0 0.1 0.2 0.2 0.2 0.2 0.2 0.2 0.3 0.3 0.3 0.3 0.3 0.3 0.4 0.4 0.4 0.4 0.4 0.4 0.5 0.5 0.5 0.5 0.5 0.5 0.6 0.6 0.6 0.6 0.6 0.6 0.7 0.7 0.7 0.7 0.7 0.7 0.8 0.8 0.8 0.8 0.8 0.8 0.9 0.9 0.9 0.9 0.9 0.9 1 1 1 1 1 1
0 0.1 0 0.1 0.2 0.2 0.3 0.3 0.4 0.4 0.5 0.5 0 0.1 0.2 0.3 0.4 0.5 0 0.1 0.2 0.3 0.4 0.5 0 0.1 0.2 0.3 0.4 0.5 0 0.1 0.2 0.3 0.4 0.5 0 0.1 0.2 0.3 0.4 0.5 0 0.1 0.2 0.3 0.4 0.5 0 0.1 0.2 0.3 0.4 0.5 0 0.1 0.2 0.3 0.4 0.5 0 0.1 0.2 0.3 0.4 0.5
1e+18 1e+18 1e+18 1e+18 1e+18 1e+18 1e+18 1e+18 1e+18 1e+18 1e+18 1e+18 1e+18 1e+18 1e+18 1e+18 1e+18 1e+18 1e+18 1e+18 1e+18 1e+18 1e+18 1e+18 1e+18 1e+18 1e+18 1e+18 1e+18 1e+18 1e+18 1e+18 1e+18 1e+18 1e+18 1e+18 1e+18 1e+18 1e+18 1e+18 1e+18 1e+18 1e+18 1e+18 1e+18 1e+18 1e+18 1e+18 1e+18 1e+18 1e+18 1e+18 1e+18 1e+18 1e+18 1e+18 1e+18 1e+18 1e+18 1e+18 1e+18 1e+18 1e+18 1e+18 1e+18 1e+18
1 3 2
2 3 4
2 4 5
3 13 4
4 6 5
4 14 6
4 13 14
5 6 7
6 8 7
6 15 8
6 14 15
7 8 9
8 10 9
8 16 10
8 15 16
9 10 11
10 12 11
10 17 12
10 16 17
12 17 18
13 19 14
14 20 15
14 19 20
15 21 16
15 20 21
16 22 17
16 21 22
17 23 18
17 22 23
18 23 24
19 25 20
20 26 21
20 25 26
21 27 22
21 26 27
22 28 23
22 27 28
23 29 24
23 28 29
24 29 30
25 31 26
26 32 27
26 31 32
27 33 28
27 32 33
28 34 29
28 33 34
29 35 30
29 34 35
30 35 36
31 37 32
32 38 33
32 37 38
33 39 34
33 38 39
34 40 35
34 39 40
35 41 36
35 40 41
36 41 42
37 43 38
38 44 39
38 43 44
39 45 40
39 44 45
40 46 41
40 45 46
41 47 42
41 46 47
42 47 48
43 49 44
44 50 45
44 49 50
45 51 46
45 50 51
46 52 47
46 51 52
47 53 48
47 52 53
48 53 54
49 55 50
50 56 51
50 55 56
51 57 52
51 56 57
52 58 53
52 57 58
53 59 54
53 58 59
54 59 60
55 61 56
56 62 57
56 61 62
57 63 58
57 62 63
58 64 59
58 63 64
59 65 60
59 64 65
60 65 66
ZONE T="r1" NODES=22, ELEMENTS=20, DATAPACKING=BLOCK, ZONETYPE=FETRIANGLE
0 0 0.1 0.1 0.2 0.2 0.3 0.3 0.4 0.4 0.5 0.5 0.6 0.6 0.7 0.7 0.8 0.8 0.9 0.9 1 1
0.5 0.6 0.5 0.6 0.5 0.6 0.5 0.6 0.5 0.6 0.5 0.6 0.5 0.6 0.5 0.6 0.5 0.6 0.5 0.6 0.5 0.6
-1e+15 -1e+15 -1e+15 -1e+15 -1e+15 -1e+15 -1e+15 -1e+15 -1e+15 -1e+15 -1e+15 -1e+15 -1e+15 -1e+15 -1e+15 -1e+15 -1e+15 -1e+15 -1e+15 -1e+15 -1e+15 -1e+15
1 3 2
2 3 4
3 5 4
4 5 6
5 7 6
6 7 8
7 9 8
8 9 10
9 11 10
10 11 12
11 13 12
12 13 14
13 15 14
14 15 16
15 17 16
16 17 18
17 19 18
18 19 20
19 21 20
20 21 22
ZONE T="r2" NODES=55, ELEMENTS=80, DATAPACKING=BLOCK, ZONETYPE=FETRIANGLE
0 0 0.1 0.1 0 0.1 0 0.1 0 0.1 0.2 0.2 0.2 0.2 0.2 0.3 0.3 0.3 0.3 0.3 0.4 0.4 0.4 0.4 0.4 0.5 0.5 0.5 0.5 0.5 0.6 0.6 0.6 0.6 0.6 0.7 0.7 0.7 0.7 0.7 0.8 0.8 0.8 0.8 0.8 0.9 0.9 0.9 0.9 0.9 1 1 1 1 1
0.6 0.7 0.6 0.7 0.8 0.8 0.9 0.9 1 1 0.6 0.7 0.8 0.9 1 0.6 0.7 0.8 0.9 1 0.6 0.7 0.8 0.9 1 0.6 0.7 0.8 0.9 1 0.6 0.7 0.8 0.9 1 0.6 0.7 0.8 0.9 1 0.6 0.7 0.8 0.9 1 0.6 0.7 0.8 0.9 1 0.6 0.7 0.8 0.9 1
-1e+15 -1e+15 -1e+15 -1e+15 -1e+15 -1e+15 -1e+15 -1e+15 -1e+15 -1e+15 -1e+15 -1e+15 -1e+15 -1e+15 -1e+15 -1e+15 -1e+15 -1e+15 -1e+15 -1e+15 -1e+15 -1e+15 -1e+15 -1e+15 -1e+15 -1e+15 -1e+15 -1e+15 -1e+15 -1e+15 -1e+15 -1e+15 -1e+15 -1e+15 -1e+15 -1e+15 -1e+15 -1e+15 -1e+15 -1e+15 -1e+15 -1e+15 -1e+15 -1e+15 -1e+15 -1e+15 -1e+15 -1e+15 -1e+15 -1e+15 -1e+15 -1e+15 -1e+15 -1e+15 -1e+15
1 3 2
2 3 4
2 4 5
3 11 4
4 6 5
4 12 6
4 11 12
5 6 7
6 8 7
6 13 8
6 12 13
7 8 9
8 10 9
8 14 10
8 13 14
10 14 15
11 16 12
12 17 13
12 16 17
13 18 14
13 17 18
14 19 15
14 18 19
15 19 20
16 21 17
17 22 18
17 21 22
18 23 19
18 22 23
19 24 20
19 23 24
20 24 25
21 26 22
22 27 23
22 26 27
23 28 24
23 27 28
24 29 25
24 28 29
25 29 30
26 31 27
27 32 28
27 31 32
28 33 29
28 32 33
29 34 30
29 33 34
30 34 35
31 36 32
32 37 33
32 36 37
33 38 34
33 37 38
34 39 35
34 38 39
35 39 40
36 41 37
37 42 38
37 41 42
38 43 39
38 42 43
39 44 40
39 43 44
40 44 45
41 46 42
42 47 43
42 46 47
43 48 44
43 47 48
44 49 45
44 48 49
45 49 50
46 51 47
47 52 48
47 51 52
48 53 49
48 52 53
49 54 50
49 53 54
50 54 55

